s 1.384510000 _0_ MAC  --- 0 raw 1084 [0 ffffffff 0 800] ------- [0:0 0:0 0 0] raw 
r 1.393182003 _1_ MAC  --- 0 raw 1032 [0 ffffffff 0 800] ------- [0:0 0:0 0 0] raw 
r 1.393182167 _2_ MAC  --- 0 raw 1032 [0 ffffffff 0 800] ------- [0:0 0:0 0 0] raw 
s 1.778610000 _2_ MAC  --- 1 raw 1084 [0 ffffffff 2 800] ------- [0:0 0:0 0 0] raw 
r 1.787282167 _0_ MAC  --- 1 raw 1032 [0 ffffffff 2 800] ------- [0:0 0:0 0 0] raw 
r 1.787282167 _3_ MAC  --- 1 raw 1032 [0 ffffffff 2 800] ------- [0:0 0:0 0 0] raw 
r 1.787282167 _1_ MAC  --- 1 raw 1032 [0 ffffffff 2 800] ------- [0:0 0:0 0 0] raw 
s 1.887370000 _1_ MAC  --- 2 raw 1084 [0 ffffffff 1 800] ------- [0:0 0:0 0 0] raw 
r 1.896042003 _0_ MAC  --- 2 raw 1032 [0 ffffffff 1 800] ------- [0:0 0:0 0 0] raw 
r 1.896042167 _2_ MAC  --- 2 raw 1032 [0 ffffffff 1 800] ------- [0:0 0:0 0 0] raw 
r 1.896042233 _3_ MAC  --- 2 raw 1032 [0 ffffffff 1 800] ------- [0:0 0:0 0 0] raw 
s 1.916210000 _3_ MAC  --- 3 raw 1084 [0 ffffffff 3 800] ------- [0:0 0:0 0 0] raw 
r 1.924882167 _2_ MAC  --- 3 raw 1032 [0 ffffffff 3 800] ------- [0:0 0:0 0 0] raw 
r 1.924882233 _1_ MAC  --- 3 raw 1032 [0 ffffffff 3 800] ------- [0:0 0:0 0 0] raw 
r 1.924882236 _0_ MAC  --- 3 raw 1032 [0 ffffffff 3 800] ------- [0:0 0:0 0 0] raw 
s 2.384290000 _0_ MAC  --- 4 raw 1084 [0 ffffffff 0 800] ------- [0:0 0:0 0 0] raw 
r 2.392962003 _1_ MAC  --- 4 raw 1032 [0 ffffffff 0 800] ------- [0:0 0:0 0 0] raw 
r 2.392962167 _2_ MAC  --- 4 raw 1032 [0 ffffffff 0 800] ------- [0:0 0:0 0 0] raw 
s 2.778310000 _2_ MAC  --- 5 raw 1084 [0 ffffffff 2 800] ------- [0:0 0:0 0 0] raw 
r 2.786982167 _0_ MAC  --- 5 raw 1032 [0 ffffffff 2 800] ------- [0:0 0:0 0 0] raw 
r 2.786982167 _3_ MAC  --- 5 raw 1032 [0 ffffffff 2 800] ------- [0:0 0:0 0 0] raw 
r 2.786982167 _1_ MAC  --- 5 raw 1032 [0 ffffffff 2 800] ------- [0:0 0:0 0 0] raw 
s 2.887090000 _1_ MAC  --- 6 raw 1084 [0 ffffffff 1 800] ------- [0:0 0:0 0 0] raw 
r 2.895762003 _0_ MAC  --- 6 raw 1032 [0 ffffffff 1 800] ------- [0:0 0:0 0 0] raw 
r 2.895762167 _2_ MAC  --- 6 raw 1032 [0 ffffffff 1 800] ------- [0:0 0:0 0 0] raw 
s 2.916210000 _3_ MAC  --- 7 raw 1084 [0 ffffffff 3 800] ------- [0:0 0:0 0 0] raw 
r 2.924882233 _1_ MAC  --- 7 raw 1032 [0 ffffffff 3 800] ------- [0:0 0:0 0 0] raw 
r 2.924882236 _0_ MAC  --- 7 raw 1032 [0 ffffffff 3 800] ------- [0:0 0:0 0 0] raw 
s 3.384290000 _0_ MAC  --- 8 raw 1084 [0 ffffffff 0 800] ------- [0:0 0:0 0 0] raw 
r 3.392962003 _1_ MAC  --- 8 raw 1032 [0 ffffffff 0 800] ------- [0:0 0:0 0 0] raw 
r 3.392962167 _2_ MAC  --- 8 raw 1032 [0 ffffffff 0 800] ------- [0:0 0:0 0 0] raw 
r 3.392962236 _3_ MAC  --- 8 raw 1032 [0 ffffffff 0 800] ------- [0:0 0:0 0 0] raw 
s 3.778530000 _2_ MAC  --- 9 raw 1084 [0 ffffffff 2 800] ------- [0:0 0:0 0 0] raw 
r 3.787202167 _0_ MAC  --- 9 raw 1032 [0 ffffffff 2 800] ------- [0:0 0:0 0 0] raw 
r 3.787202167 _3_ MAC  --- 9 raw 1032 [0 ffffffff 2 800] ------- [0:0 0:0 0 0] raw 
r 3.787202167 _1_ MAC  --- 9 raw 1032 [0 ffffffff 2 800] ------- [0:0 0:0 0 0] raw 
s 3.887370000 _1_ MAC  --- 10 raw 1084 [0 ffffffff 1 800] ------- [0:0 0:0 0 0] raw 
r 3.896042003 _0_ MAC  --- 10 raw 1032 [0 ffffffff 1 800] ------- [0:0 0:0 0 0] raw 
r 3.896042167 _2_ MAC  --- 10 raw 1032 [0 ffffffff 1 800] ------- [0:0 0:0 0 0] raw 
r 3.896042233 _3_ MAC  --- 10 raw 1032 [0 ffffffff 1 800] ------- [0:0 0:0 0 0] raw 
s 3.916270000 _3_ MAC  --- 11 raw 1084 [0 ffffffff 3 800] ------- [0:0 0:0 0 0] raw 
r 3.924942167 _2_ MAC  --- 11 raw 1032 [0 ffffffff 3 800] ------- [0:0 0:0 0 0] raw 
r 3.924942233 _1_ MAC  --- 11 raw 1032 [0 ffffffff 3 800] ------- [0:0 0:0 0 0] raw 
r 3.924942236 _0_ MAC  --- 11 raw 1032 [0 ffffffff 3 800] ------- [0:0 0:0 0 0] raw 
s 4.384290000 _0_ MAC  --- 12 raw 1084 [0 ffffffff 0 800] ------- [0:0 0:0 0 0] raw 
r 4.392962003 _1_ MAC  --- 12 raw 1032 [0 ffffffff 0 800] ------- [0:0 0:0 0 0] raw 
r 4.392962167 _2_ MAC  --- 12 raw 1032 [0 ffffffff 0 800] ------- [0:0 0:0 0 0] raw 
s 4.778230000 _2_ MAC  --- 13 raw 1084 [0 ffffffff 2 800] ------- [0:0 0:0 0 0] raw 
r 4.786902167 _0_ MAC  --- 13 raw 1032 [0 ffffffff 2 800] ------- [0:0 0:0 0 0] raw 
r 4.786902167 _3_ MAC  --- 13 raw 1032 [0 ffffffff 2 800] ------- [0:0 0:0 0 0] raw 
r 4.786902167 _1_ MAC  --- 13 raw 1032 [0 ffffffff 2 800] ------- [0:0 0:0 0 0] raw 
s 4.887450000 _1_ MAC  --- 14 raw 1084 [0 ffffffff 1 800] ------- [0:0 0:0 0 0] raw 
r 4.896122003 _0_ MAC  --- 14 raw 1032 [0 ffffffff 1 800] ------- [0:0 0:0 0 0] raw 
r 4.896122167 _2_ MAC  --- 14 raw 1032 [0 ffffffff 1 800] ------- [0:0 0:0 0 0] raw 
r 4.896122233 _3_ MAC  --- 14 raw 1032 [0 ffffffff 1 800] ------- [0:0 0:0 0 0] raw 
s 4.916410000 _3_ MAC  --- 15 raw 1084 [0 ffffffff 3 800] ------- [0:0 0:0 0 0] raw 
r 4.925082167 _2_ MAC  --- 15 raw 1032 [0 ffffffff 3 800] ------- [0:0 0:0 0 0] raw 
r 4.925082236 _0_ MAC  --- 15 raw 1032 [0 ffffffff 3 800] ------- [0:0 0:0 0 0] raw 
s 5.384350000 _0_ MAC  --- 16 raw 1084 [0 ffffffff 0 800] ------- [0:0 0:0 0 0] raw 
r 5.393022003 _1_ MAC  --- 16 raw 1032 [0 ffffffff 0 800] ------- [0:0 0:0 0 0] raw 
r 5.393022167 _2_ MAC  --- 16 raw 1032 [0 ffffffff 0 800] ------- [0:0 0:0 0 0] raw 
s 5.778190000 _2_ MAC  --- 17 raw 1084 [0 ffffffff 2 800] ------- [0:0 0:0 0 0] raw 
r 5.786862167 _0_ MAC  --- 17 raw 1032 [0 ffffffff 2 800] ------- [0:0 0:0 0 0] raw 
r 5.786862167 _3_ MAC  --- 17 raw 1032 [0 ffffffff 2 800] ------- [0:0 0:0 0 0] raw 
r 5.786862167 _1_ MAC  --- 17 raw 1032 [0 ffffffff 2 800] ------- [0:0 0:0 0 0] raw 
s 5.887330000 _1_ MAC  --- 18 raw 1084 [0 ffffffff 1 800] ------- [0:0 0:0 0 0] raw 
r 5.896002003 _0_ MAC  --- 18 raw 1032 [0 ffffffff 1 800] ------- [0:0 0:0 0 0] raw 
r 5.896002233 _3_ MAC  --- 18 raw 1032 [0 ffffffff 1 800] ------- [0:0 0:0 0 0] raw 
s 5.916150000 _3_ MAC  --- 19 raw 1084 [0 ffffffff 3 800] ------- [0:0 0:0 0 0] raw 
r 5.924822167 _2_ MAC  --- 19 raw 1032 [0 ffffffff 3 800] ------- [0:0 0:0 0 0] raw 
s 6.384270000 _0_ MAC  --- 20 raw 1084 [0 ffffffff 0 800] ------- [0:0 0:0 0 0] raw 
r 6.392942003 _1_ MAC  --- 20 raw 1032 [0 ffffffff 0 800] ------- [0:0 0:0 0 0] raw 
r 6.392942167 _2_ MAC  --- 20 raw 1032 [0 ffffffff 0 800] ------- [0:0 0:0 0 0] raw 
r 6.392942236 _3_ MAC  --- 20 raw 1032 [0 ffffffff 0 800] ------- [0:0 0:0 0 0] raw 
s 6.778630000 _2_ MAC  --- 21 raw 1084 [0 ffffffff 2 800] ------- [0:0 0:0 0 0] raw 
r 6.787302167 _0_ MAC  --- 21 raw 1032 [0 ffffffff 2 800] ------- [0:0 0:0 0 0] raw 
r 6.787302167 _3_ MAC  --- 21 raw 1032 [0 ffffffff 2 800] ------- [0:0 0:0 0 0] raw 
r 6.787302167 _1_ MAC  --- 21 raw 1032 [0 ffffffff 2 800] ------- [0:0 0:0 0 0] raw 
s 6.887170000 _1_ MAC  --- 22 raw 1084 [0 ffffffff 1 800] ------- [0:0 0:0 0 0] raw 
r 6.895842003 _0_ MAC  --- 22 raw 1032 [0 ffffffff 1 800] ------- [0:0 0:0 0 0] raw 
r 6.895842167 _2_ MAC  --- 22 raw 1032 [0 ffffffff 1 800] ------- [0:0 0:0 0 0] raw 
r 6.895842233 _3_ MAC  --- 22 raw 1032 [0 ffffffff 1 800] ------- [0:0 0:0 0 0] raw 
s 6.916550000 _3_ MAC  --- 23 raw 1084 [0 ffffffff 3 800] ------- [0:0 0:0 0 0] raw 
r 6.925222167 _2_ MAC  --- 23 raw 1032 [0 ffffffff 3 800] ------- [0:0 0:0 0 0] raw 
r 6.925222233 _1_ MAC  --- 23 raw 1032 [0 ffffffff 3 800] ------- [0:0 0:0 0 0] raw 
r 6.925222236 _0_ MAC  --- 23 raw 1032 [0 ffffffff 3 800] ------- [0:0 0:0 0 0] raw 
s 7.384230000 _0_ MAC  --- 24 raw 1084 [0 ffffffff 0 800] ------- [0:0 0:0 0 0] raw 
r 7.392902003 _1_ MAC  --- 24 raw 1032 [0 ffffffff 0 800] ------- [0:0 0:0 0 0] raw 
r 7.392902167 _2_ MAC  --- 24 raw 1032 [0 ffffffff 0 800] ------- [0:0 0:0 0 0] raw 
s 7.778530000 _2_ MAC  --- 25 raw 1084 [0 ffffffff 2 800] ------- [0:0 0:0 0 0] raw 
r 7.787202167 _0_ MAC  --- 25 raw 1032 [0 ffffffff 2 800] ------- [0:0 0:0 0 0] raw 
r 7.787202167 _3_ MAC  --- 25 raw 1032 [0 ffffffff 2 800] ------- [0:0 0:0 0 0] raw 
r 7.787202167 _1_ MAC  --- 25 raw 1032 [0 ffffffff 2 800] ------- [0:0 0:0 0 0] raw 
s 7.887270000 _1_ MAC  --- 26 raw 1084 [0 ffffffff 1 800] ------- [0:0 0:0 0 0] raw 
r 7.895942003 _0_ MAC  --- 26 raw 1032 [0 ffffffff 1 800] ------- [0:0 0:0 0 0] raw 
r 7.895942167 _2_ MAC  --- 26 raw 1032 [0 ffffffff 1 800] ------- [0:0 0:0 0 0] raw 
s 7.916210000 _3_ MAC  --- 27 raw 1084 [0 ffffffff 3 800] ------- [0:0 0:0 0 0] raw 
r 7.924882167 _2_ MAC  --- 27 raw 1032 [0 ffffffff 3 800] ------- [0:0 0:0 0 0] raw 
r 7.924882236 _0_ MAC  --- 27 raw 1032 [0 ffffffff 3 800] ------- [0:0 0:0 0 0] raw 
s 8.384130000 _0_ MAC  --- 28 raw 1084 [0 ffffffff 0 800] ------- [0:0 0:0 0 0] raw 
r 8.392802003 _1_ MAC  --- 28 raw 1032 [0 ffffffff 0 800] ------- [0:0 0:0 0 0] raw 
r 8.392802167 _2_ MAC  --- 28 raw 1032 [0 ffffffff 0 800] ------- [0:0 0:0 0 0] raw 
r 8.392802236 _3_ MAC  --- 28 raw 1032 [0 ffffffff 0 800] ------- [0:0 0:0 0 0] raw 
s 8.778050000 _2_ MAC  --- 29 raw 1084 [0 ffffffff 2 800] ------- [0:0 0:0 0 0] raw 
r 8.786722167 _0_ MAC  --- 29 raw 1032 [0 ffffffff 2 800] ------- [0:0 0:0 0 0] raw 
r 8.786722167 _3_ MAC  --- 29 raw 1032 [0 ffffffff 2 800] ------- [0:0 0:0 0 0] raw 
r 8.786722167 _1_ MAC  --- 29 raw 1032 [0 ffffffff 2 800] ------- [0:0 0:0 0 0] raw 
s 8.887350000 _1_ MAC  --- 30 raw 1084 [0 ffffffff 1 800] ------- [0:0 0:0 0 0] raw 
r 8.896022003 _0_ MAC  --- 30 raw 1032 [0 ffffffff 1 800] ------- [0:0 0:0 0 0] raw 
r 8.896022167 _2_ MAC  --- 30 raw 1032 [0 ffffffff 1 800] ------- [0:0 0:0 0 0] raw 
r 8.896022233 _3_ MAC  --- 30 raw 1032 [0 ffffffff 1 800] ------- [0:0 0:0 0 0] raw 
s 8.916070000 _3_ MAC  --- 31 raw 1084 [0 ffffffff 3 800] ------- [0:0 0:0 0 0] raw 
r 8.924742167 _2_ MAC  --- 31 raw 1032 [0 ffffffff 3 800] ------- [0:0 0:0 0 0] raw 
r 8.924742233 _1_ MAC  --- 31 raw 1032 [0 ffffffff 3 800] ------- [0:0 0:0 0 0] raw 
r 8.924742236 _0_ MAC  --- 31 raw 1032 [0 ffffffff 3 800] ------- [0:0 0:0 0 0] raw 
s 9.384290000 _0_ MAC  --- 32 raw 1084 [0 ffffffff 0 800] ------- [0:0 0:0 0 0] raw 
r 9.392962003 _1_ MAC  --- 32 raw 1032 [0 ffffffff 0 800] ------- [0:0 0:0 0 0] raw 
r 9.392962167 _2_ MAC  --- 32 raw 1032 [0 ffffffff 0 800] ------- [0:0 0:0 0 0] raw 
s 9.778350000 _2_ MAC  --- 33 raw 1084 [0 ffffffff 2 800] ------- [0:0 0:0 0 0] raw 
r 9.787022167 _0_ MAC  --- 33 raw 1032 [0 ffffffff 2 800] ------- [0:0 0:0 0 0] raw 
r 9.787022167 _3_ MAC  --- 33 raw 1032 [0 ffffffff 2 800] ------- [0:0 0:0 0 0] raw 
s 9.887510000 _1_ MAC  --- 34 raw 1084 [0 ffffffff 1 800] ------- [0:0 0:0 0 0] raw 
r 9.896182003 _0_ MAC  --- 34 raw 1032 [0 ffffffff 1 800] ------- [0:0 0:0 0 0] raw 
r 9.896182167 _2_ MAC  --- 34 raw 1032 [0 ffffffff 1 800] ------- [0:0 0:0 0 0] raw 
r 9.896182233 _3_ MAC  --- 34 raw 1032 [0 ffffffff 1 800] ------- [0:0 0:0 0 0] raw 
s 9.916250000 _3_ MAC  --- 35 raw 1084 [0 ffffffff 3 800] ------- [0:0 0:0 0 0] raw 
r 9.924922233 _1_ MAC  --- 35 raw 1032 [0 ffffffff 3 800] ------- [0:0 0:0 0 0] raw 
r 9.924922236 _0_ MAC  --- 35 raw 1032 [0 ffffffff 3 800] ------- [0:0 0:0 0 0] raw 
s 10.384130000 _0_ MAC  --- 36 raw 1084 [0 ffffffff 0 800] ------- [0:0 0:0 0 0] raw 
r 10.392802003 _1_ MAC  --- 36 raw 1032 [0 ffffffff 0 800] ------- [0:0 0:0 0 0] raw 
r 10.392802167 _2_ MAC  --- 36 raw 1032 [0 ffffffff 0 800] ------- [0:0 0:0 0 0] raw 
s 10.778250000 _2_ MAC  --- 37 raw 1084 [0 ffffffff 2 800] ------- [0:0 0:0 0 0] raw 
r 10.786922167 _0_ MAC  --- 37 raw 1032 [0 ffffffff 2 800] ------- [0:0 0:0 0 0] raw 
r 10.786922167 _3_ MAC  --- 37 raw 1032 [0 ffffffff 2 800] ------- [0:0 0:0 0 0] raw 
r 10.786922167 _1_ MAC  --- 37 raw 1032 [0 ffffffff 2 800] ------- [0:0 0:0 0 0] raw 
s 10.887390000 _1_ MAC  --- 38 raw 1084 [0 ffffffff 1 800] ------- [0:0 0:0 0 0] raw 
r 10.896062003 _0_ MAC  --- 38 raw 1032 [0 ffffffff 1 800] ------- [0:0 0:0 0 0] raw 
r 10.896062167 _2_ MAC  --- 38 raw 1032 [0 ffffffff 1 800] ------- [0:0 0:0 0 0] raw 
r 10.896062233 _3_ MAC  --- 38 raw 1032 [0 ffffffff 1 800] ------- [0:0 0:0 0 0] raw 
s 10.916170000 _3_ MAC  --- 39 raw 1084 [0 ffffffff 3 800] ------- [0:0 0:0 0 0] raw 
r 10.924842167 _2_ MAC  --- 39 raw 1032 [0 ffffffff 3 800] ------- [0:0 0:0 0 0] raw 
r 10.924842233 _1_ MAC  --- 39 raw 1032 [0 ffffffff 3 800] ------- [0:0 0:0 0 0] raw 
r 10.924842236 _0_ MAC  --- 39 raw 1032 [0 ffffffff 3 800] ------- [0:0 0:0 0 0] raw 
s 11.384630000 _0_ MAC  --- 40 raw 1084 [0 ffffffff 0 800] ------- [0:0 0:0 0 0] raw 
r 11.393302003 _1_ MAC  --- 40 raw 1032 [0 ffffffff 0 800] ------- [0:0 0:0 0 0] raw 
r 11.393302167 _2_ MAC  --- 40 raw 1032 [0 ffffffff 0 800] ------- [0:0 0:0 0 0] raw 
r 11.393302236 _3_ MAC  --- 40 raw 1032 [0 ffffffff 0 800] ------- [0:0 0:0 0 0] raw 
s 11.778650000 _2_ MAC  --- 41 raw 1084 [0 ffffffff 2 800] ------- [0:0 0:0 0 0] raw 
r 11.787322167 _3_ MAC  --- 41 raw 1032 [0 ffffffff 2 800] ------- [0:0 0:0 0 0] raw 
r 11.787322167 _1_ MAC  --- 41 raw 1032 [0 ffffffff 2 800] ------- [0:0 0:0 0 0] raw 
s 11.887590000 _1_ MAC  --- 42 raw 1084 [0 ffffffff 1 800] ------- [0:0 0:0 0 0] raw 
r 11.896262003 _0_ MAC  --- 42 raw 1032 [0 ffffffff 1 800] ------- [0:0 0:0 0 0] raw 
r 11.896262167 _2_ MAC  --- 42 raw 1032 [0 ffffffff 1 800] ------- [0:0 0:0 0 0] raw 
r 11.896262233 _3_ MAC  --- 42 raw 1032 [0 ffffffff 1 800] ------- [0:0 0:0 0 0] raw 
s 11.916350000 _3_ MAC  --- 43 raw 1084 [0 ffffffff 3 800] ------- [0:0 0:0 0 0] raw 
r 11.925022167 _2_ MAC  --- 43 raw 1032 [0 ffffffff 3 800] ------- [0:0 0:0 0 0] raw 
r 11.925022233 _1_ MAC  --- 43 raw 1032 [0 ffffffff 3 800] ------- [0:0 0:0 0 0] raw 
r 11.925022236 _0_ MAC  --- 43 raw 1032 [0 ffffffff 3 800] ------- [0:0 0:0 0 0] raw 
s 12.384390000 _0_ MAC  --- 44 raw 1084 [0 ffffffff 0 800] ------- [0:0 0:0 0 0] raw 
r 12.393062003 _1_ MAC  --- 44 raw 1032 [0 ffffffff 0 800] ------- [0:0 0:0 0 0] raw 
r 12.393062167 _2_ MAC  --- 44 raw 1032 [0 ffffffff 0 800] ------- [0:0 0:0 0 0] raw 
r 12.393062236 _3_ MAC  --- 44 raw 1032 [0 ffffffff 0 800] ------- [0:0 0:0 0 0] raw 
s 12.778630000 _2_ MAC  --- 45 raw 1084 [0 ffffffff 2 800] ------- [0:0 0:0 0 0] raw 
r 12.787302167 _0_ MAC  --- 45 raw 1032 [0 ffffffff 2 800] ------- [0:0 0:0 0 0] raw 
r 12.787302167 _3_ MAC  --- 45 raw 1032 [0 ffffffff 2 800] ------- [0:0 0:0 0 0] raw 
r 12.787302167 _1_ MAC  --- 45 raw 1032 [0 ffffffff 2 800] ------- [0:0 0:0 0 0] raw 
s 12.887230000 _1_ MAC  --- 46 raw 1084 [0 ffffffff 1 800] ------- [0:0 0:0 0 0] raw 
r 12.895902003 _0_ MAC  --- 46 raw 1032 [0 ffffffff 1 800] ------- [0:0 0:0 0 0] raw 
r 12.895902167 _2_ MAC  --- 46 raw 1032 [0 ffffffff 1 800] ------- [0:0 0:0 0 0] raw 
r 12.895902233 _3_ MAC  --- 46 raw 1032 [0 ffffffff 1 800] ------- [0:0 0:0 0 0] raw 
s 12.916490000 _3_ MAC  --- 47 raw 1084 [0 ffffffff 3 800] ------- [0:0 0:0 0 0] raw 
r 12.925162167 _2_ MAC  --- 47 raw 1032 [0 ffffffff 3 800] ------- [0:0 0:0 0 0] raw 
r 12.925162233 _1_ MAC  --- 47 raw 1032 [0 ffffffff 3 800] ------- [0:0 0:0 0 0] raw 
r 12.925162236 _0_ MAC  --- 47 raw 1032 [0 ffffffff 3 800] ------- [0:0 0:0 0 0] raw 
s 13.384170000 _0_ MAC  --- 48 raw 1084 [0 ffffffff 0 800] ------- [0:0 0:0 0 0] raw 
r 13.392842003 _1_ MAC  --- 48 raw 1032 [0 ffffffff 0 800] ------- [0:0 0:0 0 0] raw 
r 13.392842167 _2_ MAC  --- 48 raw 1032 [0 ffffffff 0 800] ------- [0:0 0:0 0 0] raw 
r 13.392842236 _3_ MAC  --- 48 raw 1032 [0 ffffffff 0 800] ------- [0:0 0:0 0 0] raw 
s 13.778270000 _2_ MAC  --- 49 raw 1084 [0 ffffffff 2 800] ------- [0:0 0:0 0 0] raw 
r 13.786942167 _0_ MAC  --- 49 raw 1032 [0 ffffffff 2 800] ------- [0:0 0:0 0 0] raw 
r 13.786942167 _3_ MAC  --- 49 raw 1032 [0 ffffffff 2 800] ------- [0:0 0:0 0 0] raw 
r 13.786942167 _1_ MAC  --- 49 raw 1032 [0 ffffffff 2 800] ------- [0:0 0:0 0 0] raw 
s 13.887190000 _1_ MAC  --- 50 raw 1084 [0 ffffffff 1 800] ------- [0:0 0:0 0 0] raw 
r 13.895862003 _0_ MAC  --- 50 raw 1032 [0 ffffffff 1 800] ------- [0:0 0:0 0 0] raw 
r 13.895862167 _2_ MAC  --- 50 raw 1032 [0 ffffffff 1 800] ------- [0:0 0:0 0 0] raw 
s 13.916370000 _3_ MAC  --- 51 raw 1084 [0 ffffffff 3 800] ------- [0:0 0:0 0 0] raw 
r 13.925042233 _1_ MAC  --- 51 raw 1032 [0 ffffffff 3 800] ------- [0:0 0:0 0 0] raw 
r 13.925042236 _0_ MAC  --- 51 raw 1032 [0 ffffffff 3 800] ------- [0:0 0:0 0 0] raw 
s 14.384550000 _0_ MAC  --- 52 raw 1084 [0 ffffffff 0 800] ------- [0:0 0:0 0 0] raw 
r 14.393222003 _1_ MAC  --- 52 raw 1032 [0 ffffffff 0 800] ------- [0:0 0:0 0 0] raw 
r 14.393222167 _2_ MAC  --- 52 raw 1032 [0 ffffffff 0 800] ------- [0:0 0:0 0 0] raw 
r 14.393222236 _3_ MAC  --- 52 raw 1032 [0 ffffffff 0 800] ------- [0:0 0:0 0 0] raw 
s 14.778210000 _2_ MAC  --- 53 raw 1084 [0 ffffffff 2 800] ------- [0:0 0:0 0 0] raw 
r 14.786882167 _0_ MAC  --- 53 raw 1032 [0 ffffffff 2 800] ------- [0:0 0:0 0 0] raw 
r 14.786882167 _3_ MAC  --- 53 raw 1032 [0 ffffffff 2 800] ------- [0:0 0:0 0 0] raw 
r 14.786882167 _1_ MAC  --- 53 raw 1032 [0 ffffffff 2 800] ------- [0:0 0:0 0 0] raw 
s 14.887310000 _1_ MAC  --- 54 raw 1084 [0 ffffffff 1 800] ------- [0:0 0:0 0 0] raw 
r 14.895982003 _0_ MAC  --- 54 raw 1032 [0 ffffffff 1 800] ------- [0:0 0:0 0 0] raw 
r 14.895982167 _2_ MAC  --- 54 raw 1032 [0 ffffffff 1 800] ------- [0:0 0:0 0 0] raw 
r 14.895982233 _3_ MAC  --- 54 raw 1032 [0 ffffffff 1 800] ------- [0:0 0:0 0 0] raw 
s 14.916050000 _3_ MAC  --- 55 raw 1084 [0 ffffffff 3 800] ------- [0:0 0:0 0 0] raw 
r 14.924722167 _2_ MAC  --- 55 raw 1032 [0 ffffffff 3 800] ------- [0:0 0:0 0 0] raw 
r 14.924722233 _1_ MAC  --- 55 raw 1032 [0 ffffffff 3 800] ------- [0:0 0:0 0 0] raw 
r 14.924722236 _0_ MAC  --- 55 raw 1032 [0 ffffffff 3 800] ------- [0:0 0:0 0 0] raw 
s 15.384570000 _0_ MAC  --- 56 raw 1084 [0 ffffffff 0 800] ------- [0:0 0:0 0 0] raw 
r 15.393242003 _1_ MAC  --- 56 raw 1032 [0 ffffffff 0 800] ------- [0:0 0:0 0 0] raw 
r 15.393242167 _2_ MAC  --- 56 raw 1032 [0 ffffffff 0 800] ------- [0:0 0:0 0 0] raw 
s 15.778470000 _2_ MAC  --- 57 raw 1084 [0 ffffffff 2 800] ------- [0:0 0:0 0 0] raw 
r 15.787142167 _0_ MAC  --- 57 raw 1032 [0 ffffffff 2 800] ------- [0:0 0:0 0 0] raw 
r 15.787142167 _3_ MAC  --- 57 raw 1032 [0 ffffffff 2 800] ------- [0:0 0:0 0 0] raw 
r 15.787142167 _1_ MAC  --- 57 raw 1032 [0 ffffffff 2 800] ------- [0:0 0:0 0 0] raw 
s 15.887070000 _1_ MAC  --- 58 raw 1084 [0 ffffffff 1 800] ------- [0:0 0:0 0 0] raw 
r 15.895742003 _0_ MAC  --- 58 raw 1032 [0 ffffffff 1 800] ------- [0:0 0:0 0 0] raw 
r 15.895742167 _2_ MAC  --- 58 raw 1032 [0 ffffffff 1 800] ------- [0:0 0:0 0 0] raw 
s 15.916310000 _3_ MAC  --- 59 raw 1084 [0 ffffffff 3 800] ------- [0:0 0:0 0 0] raw 
r 15.924982167 _2_ MAC  --- 59 raw 1032 [0 ffffffff 3 800] ------- [0:0 0:0 0 0] raw 
r 15.924982233 _1_ MAC  --- 59 raw 1032 [0 ffffffff 3 800] ------- [0:0 0:0 0 0] raw 
r 15.924982236 _0_ MAC  --- 59 raw 1032 [0 ffffffff 3 800] ------- [0:0 0:0 0 0] raw 
s 16.384070000 _0_ MAC  --- 60 raw 1084 [0 ffffffff 0 800] ------- [0:0 0:0 0 0] raw 
r 16.392742003 _1_ MAC  --- 60 raw 1032 [0 ffffffff 0 800] ------- [0:0 0:0 0 0] raw 
r 16.392742167 _2_ MAC  --- 60 raw 1032 [0 ffffffff 0 800] ------- [0:0 0:0 0 0] raw 
r 16.392742236 _3_ MAC  --- 60 raw 1032 [0 ffffffff 0 800] ------- [0:0 0:0 0 0] raw 
s 16.778490000 _2_ MAC  --- 61 raw 1084 [0 ffffffff 2 800] ------- [0:0 0:0 0 0] raw 
r 16.787162167 _0_ MAC  --- 61 raw 1032 [0 ffffffff 2 800] ------- [0:0 0:0 0 0] raw 
r 16.787162167 _3_ MAC  --- 61 raw 1032 [0 ffffffff 2 800] ------- [0:0 0:0 0 0] raw 
r 16.787162167 _1_ MAC  --- 61 raw 1032 [0 ffffffff 2 800] ------- [0:0 0:0 0 0] raw 
s 16.887530000 _1_ MAC  --- 62 raw 1084 [0 ffffffff 1 800] ------- [0:0 0:0 0 0] raw 
r 16.896202003 _0_ MAC  --- 62 raw 1032 [0 ffffffff 1 800] ------- [0:0 0:0 0 0] raw 
r 16.896202167 _2_ MAC  --- 62 raw 1032 [0 ffffffff 1 800] ------- [0:0 0:0 0 0] raw 
r 16.896202233 _3_ MAC  --- 62 raw 1032 [0 ffffffff 1 800] ------- [0:0 0:0 0 0] raw 
s 16.916230000 _3_ MAC  --- 63 raw 1084 [0 ffffffff 3 800] ------- [0:0 0:0 0 0] raw 
r 16.924902167 _2_ MAC  --- 63 raw 1032 [0 ffffffff 3 800] ------- [0:0 0:0 0 0] raw 
r 16.924902236 _0_ MAC  --- 63 raw 1032 [0 ffffffff 3 800] ------- [0:0 0:0 0 0] raw 
s 17.384230000 _0_ MAC  --- 64 raw 1084 [0 ffffffff 0 800] ------- [0:0 0:0 0 0] raw 
r 17.392902003 _1_ MAC  --- 64 raw 1032 [0 ffffffff 0 800] ------- [0:0 0:0 0 0] raw 
r 17.392902167 _2_ MAC  --- 64 raw 1032 [0 ffffffff 0 800] ------- [0:0 0:0 0 0] raw 
r 17.392902236 _3_ MAC  --- 64 raw 1032 [0 ffffffff 0 800] ------- [0:0 0:0 0 0] raw 
s 17.778290000 _2_ MAC  --- 65 raw 1084 [0 ffffffff 2 800] ------- [0:0 0:0 0 0] raw 
r 17.786962167 _0_ MAC  --- 65 raw 1032 [0 ffffffff 2 800] ------- [0:0 0:0 0 0] raw 
r 17.786962167 _3_ MAC  --- 65 raw 1032 [0 ffffffff 2 800] ------- [0:0 0:0 0 0] raw 
s 17.887150000 _1_ MAC  --- 66 raw 1084 [0 ffffffff 1 800] ------- [0:0 0:0 0 0] raw 
r 17.895822003 _0_ MAC  --- 66 raw 1032 [0 ffffffff 1 800] ------- [0:0 0:0 0 0] raw 
r 17.895822167 _2_ MAC  --- 66 raw 1032 [0 ffffffff 1 800] ------- [0:0 0:0 0 0] raw 
r 17.895822233 _3_ MAC  --- 66 raw 1032 [0 ffffffff 1 800] ------- [0:0 0:0 0 0] raw 
s 17.916590000 _3_ MAC  --- 67 raw 1084 [0 ffffffff 3 800] ------- [0:0 0:0 0 0] raw 
r 17.925262167 _2_ MAC  --- 67 raw 1032 [0 ffffffff 3 800] ------- [0:0 0:0 0 0] raw 
r 17.925262236 _0_ MAC  --- 67 raw 1032 [0 ffffffff 3 800] ------- [0:0 0:0 0 0] raw 
s 18.384630000 _0_ MAC  --- 68 raw 1084 [0 ffffffff 0 800] ------- [0:0 0:0 0 0] raw 
r 18.393302003 _1_ MAC  --- 68 raw 1032 [0 ffffffff 0 800] ------- [0:0 0:0 0 0] raw 
r 18.393302236 _3_ MAC  --- 68 raw 1032 [0 ffffffff 0 800] ------- [0:0 0:0 0 0] raw 
s 18.778270000 _2_ MAC  --- 69 raw 1084 [0 ffffffff 2 800] ------- [0:0 0:0 0 0] raw 
r 18.786942167 _0_ MAC  --- 69 raw 1032 [0 ffffffff 2 800] ------- [0:0 0:0 0 0] raw 
r 18.786942167 _3_ MAC  --- 69 raw 1032 [0 ffffffff 2 800] ------- [0:0 0:0 0 0] raw 
r 18.786942167 _1_ MAC  --- 69 raw 1032 [0 ffffffff 2 800] ------- [0:0 0:0 0 0] raw 
s 18.887190000 _1_ MAC  --- 70 raw 1084 [0 ffffffff 1 800] ------- [0:0 0:0 0 0] raw 
r 18.895862003 _0_ MAC  --- 70 raw 1032 [0 ffffffff 1 800] ------- [0:0 0:0 0 0] raw 
r 18.895862167 _2_ MAC  --- 70 raw 1032 [0 ffffffff 1 800] ------- [0:0 0:0 0 0] raw 
r 18.895862233 _3_ MAC  --- 70 raw 1032 [0 ffffffff 1 800] ------- [0:0 0:0 0 0] raw 
s 18.916570000 _3_ MAC  --- 71 raw 1084 [0 ffffffff 3 800] ------- [0:0 0:0 0 0] raw 
r 18.925242167 _2_ MAC  --- 71 raw 1032 [0 ffffffff 3 800] ------- [0:0 0:0 0 0] raw 
r 18.925242233 _1_ MAC  --- 71 raw 1032 [0 ffffffff 3 800] ------- [0:0 0:0 0 0] raw 
s 19.384230000 _0_ MAC  --- 72 raw 1084 [0 ffffffff 0 800] ------- [0:0 0:0 0 0] raw 
r 19.392902003 _1_ MAC  --- 72 raw 1032 [0 ffffffff 0 800] ------- [0:0 0:0 0 0] raw 
r 19.392902167 _2_ MAC  --- 72 raw 1032 [0 ffffffff 0 800] ------- [0:0 0:0 0 0] raw 
r 19.392902236 _3_ MAC  --- 72 raw 1032 [0 ffffffff 0 800] ------- [0:0 0:0 0 0] raw 
s 19.778430000 _2_ MAC  --- 73 raw 1084 [0 ffffffff 2 800] ------- [0:0 0:0 0 0] raw 
r 19.787102167 _0_ MAC  --- 73 raw 1032 [0 ffffffff 2 800] ------- [0:0 0:0 0 0] raw 
r 19.787102167 _3_ MAC  --- 73 raw 1032 [0 ffffffff 2 800] ------- [0:0 0:0 0 0] raw 
r 19.787102167 _1_ MAC  --- 73 raw 1032 [0 ffffffff 2 800] ------- [0:0 0:0 0 0] raw 
s 19.887290000 _1_ MAC  --- 74 raw 1084 [0 ffffffff 1 800] ------- [0:0 0:0 0 0] raw 
r 19.895962003 _0_ MAC  --- 74 raw 1032 [0 ffffffff 1 800] ------- [0:0 0:0 0 0] raw 
r 19.895962167 _2_ MAC  --- 74 raw 1032 [0 ffffffff 1 800] ------- [0:0 0:0 0 0] raw 
r 19.895962233 _3_ MAC  --- 74 raw 1032 [0 ffffffff 1 800] ------- [0:0 0:0 0 0] raw 
s 19.916170000 _3_ MAC  --- 75 raw 1084 [0 ffffffff 3 800] ------- [0:0 0:0 0 0] raw 
r 19.924842167 _2_ MAC  --- 75 raw 1032 [0 ffffffff 3 800] ------- [0:0 0:0 0 0] raw 
r 19.924842233 _1_ MAC  --- 75 raw 1032 [0 ffffffff 3 800] ------- [0:0 0:0 0 0] raw 
